# vtk DataFile Version 2.0
sampleSurface
ASCII
DATASET POLYDATA
POINTS 6692 float
3.13429e-05 -8.52281e-05 -1.03979e-18 3.13429e-05 0.0999148 1.04083e-21 0 0.1 0 0.1 0.1
0 0.25 -8.52281e-05 0.1 0.25 0.0999148 0.1 1 0.601 0.1
1 0.621 0.1 1.02 0.601 0.1 1.02 0.621 0.1 1
0.601 0.35 1 0.621 0.33 1.02 0.601 0.325 1 0.604761
0.383378 1.02 0.601 0.345 1 0.624761 0.363378 1.02 0.601 0.35
1.02 0.621 0.325 1.02 0.621 0.33 1.02 0.621 0.345 1
0.615855 0.415083 1.02 0.604761 0.383378 1 0.635855 0.395083 0.823398 0.776
0.53 1.02 0.624761 0.363378 0.839289 0.776 0.509289 0.813407 0.776 0.554118
1.25 -8.52281e-05 0.1 1.25 0.0999148 0.1 0.86 0.776 0.493398 0.9
0.725 0.5 1.02 0.615855 0.415083 0.823398 0.796 0.53 0.81 0.776
0.58 0.840048 0.776 0.5375 0.839289 0.796 0.509289 1 0.633725 0.443523
0.851967 0.776 0.521967 1.02 0.635855 0.395083 0.813407 0.796 0.554118 0.832556
0.776 0.555589 0.9 0.725 0.52 1 0.653725 0.423523 0.8675 0.776
0.510048 0.86 0.796 0.493398 0.884118 0.776 0.483407 0.83 0.776 0.575
0.81 0.796 0.58 0.840048 0.796 0.5375 0.851967 0.796 0.521967 0.832556
0.796 0.555589 1.02 0.633725 0.443523 0.885589 0.776 0.502556 0.8675 0.796
0.510048 1.02 0.653725 0.423523 0.884118 0.796 0.483407 1 0.657476 0.467275
0.83 0.796 0.575 1 0.677477 0.447275 0.91 0.776 0.48 0.885589
0.796 0.502556 0.905 0.776 0.5 1.02 0.657476 0.467275 0.91 0.796
0.48 1.02 0.677477 0.447275 0.905 0.796 0.5 1 0.685917 0.485145
1 0.705917 0.465145 1.02 0.685917 0.485145 1.02 0.705917 0.465145 1
0.717622 0.496239 1 0.737622 0.476239 1.02 0.717622 0.496239 1.02 0.737622
0.476239 1 0.751 0.5 1 0.771 0.48 0.83 0.730858 0.775858
0.83 0.735 0.77268 0.83 0.727679 0.78 0.83 0.739824 0.770682 0.83
0.725681 0.784824 0.83 0.745 0.77 0.83 0.725 0.79 1.005 0.776
0.48 1.02 0.751 0.5 0.85 0.730858 0.775858 0.85 0.735 0.77268
0.85 0.727679 0.78 1.005 0.776 0.5 0.85 0.739824 0.770682 0.85
0.725681 0.784824 1.02 0.771 0.48 0.85 0.745 0.77 0.85 0.725
0.79 1.005 0.796 0.48 1.005 0.796 0.5 0.823398 1.001 0.53
0.839289 1.001 0.509289 0.813407 1.001 0.554118 0.86 1.001 0.493398 0.81
0.776 0.855 0.81 1.001 0.58 0.840048 1.001 0.5375 0.851967 1.001
0.521967 0.823398 1.021 0.53 0.832556 1.001 0.555589 0.839289 1.021 0.509289
0.813407 1.021 0.554118 0.8675 1.001 0.510048 0.884118 1.001 0.483407 0.81
0.796 0.855 0.83 1.001 0.575 0.83 0.776 0.855 0.86 1.021
0.493398 0.81 1.021 0.58 0.840048 1.021 0.5375 0.885589 1.001 0.502556
0.851967 1.021 0.521967 0.832556 1.021 0.555589 0.83 0.796 0.855 0.8675
1.021 0.510048 0.884118 1.021 0.483407 0.91 1.001 0.48 0.83 1.021
0.575 0.83 0.725 0.925 0.905 1.001 0.5 0.885589 1.021 0.502556
0.83 0.725681 0.930176 0.83 0.727679 0.935 0.91 1.021 0.48 0.85
0.725 0.925 0.83 0.730858 0.939142 0.905 1.021 0.5 0.85 0.725681
0.930176 0.83 0.735 0.942321 0.85 0.727679 0.935 0.83 0.739824 0.944318
0.83 0.745 0.945 0.85 0.730858 0.939142 0.85 0.735 0.942321 0.85
0.739824 0.944318 0.85 0.745 0.945 0.9 1.075 0.5 0.9 1.075
0.52 1.005 1.001 0.48 1.005 1.001 0.5 1.005 1.021 0.48
1.1 0.6 0.85 1 1.031 0.48 1.005 1.021 0.5 1.1
0.6 0.87 1.02 1.031 0.48 1.25 0.725 0.5 1 1.051
0.5 1.25 0.725 0.52 1 1.06438 0.476239 0.81 1.001 0.855
0.83 1.055 0.77 1.02 1.051 0.5 1.02 1.06438 0.476239 1
1.181 0.1 0.83 1.06018 0.770682 1 1.09608 0.465145 0.83 1.065
0.77268 0.83 1.001 0.855 1 1.08438 0.496239 0.85 1.055 0.77
0.81 1.021 0.855 0.83 1.06914 0.775858 0.85 1.06018 0.770682 1.02
1.181 0.1 0.83 1.07232 0.78 1 1.201 0.1 0.85 1.065
0.77268 1.02 1.09608 0.465145 0.83 1.07432 0.784824 0.83 1.021 0.855
1.02 1.08438 0.496239 1 1.12452 0.447275 0.85 1.06914 0.775858 0.83
1.075 0.79 0.85 1.07232 0.78 1 1.11608 0.485145 0.85 1.07432
0.784824 1.02 1.201 0.1 1 1.14828 0.423523 0.85 1.075 0.79
1 1.181 0.33 1.02 1.12452 0.447275 1 1.16614 0.395083 1
1.17724 0.363378 1.02 1.11608 0.485145 1 1.14452 0.467275 1.02 1.14828
0.423523 1.02 1.181 0.325 1.02 1.181 0.33 1.02 1.181 0.345
1.02 1.16614 0.395083 1.02 1.17724 0.363378 1 1.16827 0.443523 1
1.201 0.35 1.02 1.14452 0.467275 1 1.18614 0.415083 1 1.19724
0.383378 1.02 1.201 0.325 1.02 1.201 0.345 1.02 1.16827 0.443523
1.02 1.201 0.35 1.02 1.18614 0.415083 1.02 1.19724 0.383378 0.83
1.055 0.945 0.83 1.075 0.925 0.83 1.06018 0.944318 0.83 1.07432
0.930176 0.83 1.065 0.942321 0.83 1.07232 0.935 0.83 1.06914 0.939142
0.85 1.055 0.945 0.85 1.075 0.925 0.85 1.06018 0.944318 0.85
1.07432 0.930176 0.85 1.065 0.942321 0.85 1.07232 0.935 0.85 1.06914
0.939142 1.58 0.601 0.1 1.58 0.621 0.1 1.6 0.601 0.1
1.6 0.621 0.1 1.58 0.601 0.325 1.25 1.075 0.5 1.58
0.601 0.345 1.58 0.621 0.325 1.25 1.075 0.52 1.58 0.621
0.345 1.1 1.2 0.85 1.1 1.2 0.87 1.58 0.601 0.85
1.58 0.621 0.85 1.6 0.6 0.85 1.6 0.601 0.85 1.6
0.621 0.85 1.6 0.6 0.87 1.58 1.181 0.1 1.58 1.201
0.1 1.6 1.181 0.1 1.58 1.181 0.325 1.58 1.181 0.345
1.6 1.201 0.1 1.58 1.201 0.325 1.58 1.201 0.345 1.81341
0.776 0.554118 1.8234 0.776 0.53 1.81 0.776 0.58 1.81341 0.796
0.554118 1.8234 0.796 0.53 1.83929 0.776 0.509289 1.81 0.796 0.58
1.83256 0.776 0.555589 1.83929 0.796 0.509289 1.84005 0.776 0.5375 1.83
0.776 0.575 1.83256 0.796 0.555589 1.85197 0.776 0.521967 1.86 0.776
0.493398 1.84005 0.796 0.5375 1.83 0.796 0.575 1.85197 0.796 0.521967
1.86 0.796 0.493398 1.8675 0.776 0.510048 2 0.601 0.1 1.8675
0.796 0.510048 1.9 0.725 0.5 1.88412 0.776 0.483407 2 0.621
0.1 1.9 0.725 0.52 1.88559 0.776 0.502556 1.88412 0.796 0.483407
1.88559 0.796 0.502556 2.02 0.601 0.1 0.25 -8.52281e-05 2.1 2.02
0.621 0.1 1.91 0.776 0.48 1.905 0.776 0.5 0.25 0.0999148
2.1 2 0.601 0.35 1.83 0.730858 0.775858 1.83 0.735 0.77268
1.83 0.727679 0.78 1.83 0.739824 0.770682 1.83 0.725681 0.784824 2
0.621 0.33 1.83 0.745 0.77 1.83 0.725 0.79 1.91 0.796
0.48 1.905 0.796 0.5 2 0.604761 0.383378 2 0.624761 0.363378
2.02 0.601 0.325 2 0.615855 0.415083 1.85 0.730858 0.775858 1.85
0.735 0.77268 2 0.635855 0.395083 1.85 0.727679 0.78 2.02 0.601
0.345 1.85 0.739824 0.770682 2.02 0.601 0.35 1.85 0.725681 0.784824
1.85 0.745 0.77 2.02 0.621 0.325 1.85 0.725 0.79 2.02
0.621 0.33 2.02 0.621 0.345 2.02 0.604761 0.383378 1.81341 1.001
0.554118 2 0.633725 0.443523 2.02 0.624761 0.363378 2 0.653725 0.423523
1.8234 1.001 0.53 1.81 0.776 0.855 1.58 1.181 0.85 1.81
1.001 0.58 2.02 0.615855 0.415083 1.81341 1.021 0.554118 1.81 0.796
0.855 2.02 0.635855 0.395083 1.83929 1.001 0.509289 1.8234 1.021 0.53
2 0.657476 0.467275 1.81 1.021 0.58 2 0.677477 0.447275 1.58
1.201 0.85 1.83256 1.001 0.555589 1.84005 1.001 0.5375 1.6 1.181
0.85 2.02 0.633725 0.443523 1.83 1.001 0.575 1.83 0.776 0.855
1.83929 1.021 0.509289 2.02 0.653725 0.423523 1.85197 1.001 0.521967 1.86
1.001 0.493398 2 0.685917 0.485145 1.83256 1.021 0.555589 1.83 0.796
0.855 2 0.705917 0.465145 1.84005 1.021 0.5375 1.83 1.021 0.575
1.6 1.2 0.85 1.6 1.201 0.85 1.83 0.725 0.925 2.02
0.657476 0.467275 2.02 0.677477 0.447275 1.83 0.725681 0.930176 1.85197 1.021
0.521967 1.86 1.021 0.493398 1.8675 1.001 0.510048 1.83 0.727679 0.935
1.6 1.2 0.87 2 0.717622 0.496239 1.83 0.730858 0.939142 2
0.737622 0.476239 1.83 0.735 0.942321 1.88412 1.001 0.483407 2.02 0.685917
0.485145 1.83 0.739824 0.944318 1.8675 1.021 0.510048 2.02 0.705917 0.465145
1.83 0.745 0.945 1.85 0.725 0.925 1.88559 1.001 0.502556 2
0.751 0.5 1.85 0.725681 0.930176 2 0.771 0.48 1.88412 1.021
0.483407 1.85 0.727679 0.935 1.85 0.730858 0.939142 2.02 0.717622 0.496239
1.88559 1.021 0.502556 1.85 0.735 0.942321 2.02 0.737622 0.476239 2.005
0.776 0.48 1.85 0.739824 0.944318 1.85 0.745 0.945 2.005 0.776
0.5 1.91 1.001 0.48 1.905 1.001 0.5 2.005 0.796 0.48
2.02 0.751 0.5 2.005 0.796 0.5 2.02 0.771 0.48 1.91
1.021 0.48 1.905 1.021 0.5 1.81 1.001 0.855 1.9 1.075
0.5 1.9 1.075 0.52 1.81 1.021 0.855 1.83 1.055 0.77
1.83 1.06018 0.770682 1.83 1.065 0.77268 1.83 1.001 0.855 1.83
1.06914 0.775858 1.83 1.07232 0.78 1.83 1.07432 0.784824 1.83 1.021
0.855 1.85 1.055 0.77 1.83 1.075 0.79 1.85 1.06018 0.770682
1.85 1.065 0.77268 1.85 1.06914 0.775858 1.85 1.07232 0.78 1.85
1.07432 0.784824 1.85 1.075 0.79 2.005 1.001 0.48 2.005 1.001
0.5 2.005 1.021 0.48 2 1.031 0.48 2.005 1.021 0.5
2 1.051 0.5 1.83 1.055 0.945 2 1.06438 0.476239 1.83
1.075 0.925 1.83 1.06018 0.944318 1.83 1.07432 0.930176 1.83 1.065
0.942321 1.83 1.07232 0.935 2.02 1.031 0.48 1.83 1.06914 0.939142
2 1.181 0.1 2 1.09608 0.465145 2 1.08438 0.496239 1
2.101 0.1 1.85 1.055 0.945 1.85 1.075 0.925 2.02 1.051
0.5 1.85 1.06018 0.944318 2.02 1.06438 0.476239 1.85 1.07432 0.930176
1.85 1.065 0.942321 1.85 1.07232 0.935 1.85 1.06914 0.939142 2
1.201 0.1 1.02 2.101 0.1 2 1.12452 0.447275 2 1.11608
0.485145 2.02 1.181 0.1 2.1 0.6 0.85 2 1.14828 0.423523
2.02 1.09608 0.465145 2.02 1.08438 0.496239 2 1.181 0.33 1
2.121 0.1 2 1.16614 0.395083 2 1.17724 0.363378 2.1 0.6
0.87 2 1.14452 0.467275 2.02 1.201 0.1 1 2.101 0.35
2.02 1.12452 0.447275 1.02 2.121 0.1 1.02 2.101 0.325 2.02
1.11608 0.485145 2 1.16827 0.443523 2 1.201 0.35 1.02 2.101
0.345 1 2.10476 0.383378 1.02 2.101 0.35 2.02 1.14828 0.423523
2 1.18614 0.415083 2 1.19724 0.383378 2.02 1.181 0.325 2.02
1.181 0.33 2.02 1.181 0.345 2.02 1.16614 0.395083 2.02 1.17724
0.363378 1 2.121 0.33 2.02 1.14452 0.467275 1.02 2.10476 0.383378
2.02 1.201 0.325 2.02 1.201 0.345 2.02 1.16827 0.443523 1.02
2.121 0.325 2.02 1.201 0.35 1 2.12476 0.363378 1.02 2.121
0.33 1 2.11585 0.415083 1.02 2.121 0.345 2.02 1.18614 0.415083
2.02 1.19724 0.383378 1.02 2.12476 0.363378 1.02 2.11585 0.415083 1
2.13585 0.395083 1 2.13372 0.443523 1.02 2.13585 0.395083 1.02 2.13372
0.443523 1 2.15372 0.423523 2.25 0.725 0.5 1.02 2.15372 0.423523
2.25 0.725 0.52 1 2.15748 0.467275 1.02 2.15748 0.467275 1
2.17748 0.447275 1.25 -8.52281e-05 2.1 1.02 2.17748 0.447275 1.25 0.0999148
2.1 0.9 2.225 0.5 1 2.18592 0.485145 0.9 2.225 0.52
1.02 2.18592 0.485145 1 2.20592 0.465145 1.02 2.20592 0.465145 0.823398
2.276 0.53 0.839289 2.276 0.509289 0.813407 2.276 0.554118 0.86 2.276
0.493398 1 2.21762 0.496239 0.81 2.276 0.58 0.840048 2.276 0.5375
0.851967 2.276 0.521967 0.832556 2.276 0.555589 0.8675 2.276 0.510048 0.884118
2.276 0.483407 0.83 2.276 0.575 1.02 2.21762 0.496239 0.885589 2.276
[...]
CELL_DATA 12460
FIELD attributes 1
zone 1 12460 float
0 0 0 0 0 0 0 0 0 0 0
0 1 1 1 1 1 1 1 1 1
1 1 1 2 2 2 2 2 2 2
2 2 2 2 2 3 3 3 3 3
3 3 3 3 3 3 3 4 4 4
4 4 4 4 4 4 4 4 4 4
4 4 4 4 4 4 4 4 4 4
4 4 4 4 4 4 4 4 4 4
4 4 4 4 4 4 4 4 4 4
4 4 4 4 4 4 4 4 4 4
4 4 4 4 4 4 4 4 4 4
4 4 4 4 4 4 4 4 4 4
4 4 4 4 4 4 4 4 4 4
4 4 4 4 4 4 4 4 4 4
4 4 4 4 4 4 4 4 4 4
4 4 4 4 4 4 4 4 4 4
4 4 4 4 4 4 4 4 4 4
4 4 4 4 4 4 4 4 4 4
4 4 4 4 4 4 4 5 5 5
5 5 5 5 5 5 5 5 5 5
5 5 5 5 5 5 5 5 5 5
5 5 5 5 5 5 5 5 5 5
5 5 5 5 5 5 5 5 5 5
5 5 5 5 5 5 5 5 5 5
5 5 5 5 5 5 5 5 5 5
5 5 5 5 5 6 6 6 6 6
6 6 6 6 6 6 6 6 6 6
6 6 6 6 6 6 6 6 6 6
6 6 6 6 6 6 6 6 6 6
6 6 6 6 6 6 6 6 6 6
6 6 6 6 6 6 6 6 6 6
6 6 6 6 6 6 6 6 6 6
6 6 6 7 7 7 7 7 7 7
7 7 7 7 7 7 7 7 7 7
7 7 7 7 7 7 7 7 7 7
7 7 7 7 7 7 7 7 7 7
7 7 7 7 7 7 7 7 7 7
7 7 7 7 7 7 7 7 7 7
7 7 7 7 7 7 7 7 7 7
7 7 7 7 7 7 7 7 7 7
7 7 7 7 7 7 7 7 7 7
7 7 7 7 7 7 7 7 7 7
7 7 7 7 7 7 7 7 7 7
7 8 8 8 8 8 8 8 8 8
8 8 8 9 9 9 9 9 9 9
9 9 9 9 9 10 10 10 10 10
10 10 10 10 10 10 10 11 11 11
11 11 11 11 11 11 11 11 11 12
12 12 12 12 12 12 12 12 12 12
12 13 13 13 13 13 13 13 13 13
13 13 13 14 14 14 14 14 14 14
14 14 14 14 14 14 14 14 14 14
14 14 14 14 14 14 14 14 14 14
14 14 14 14 14 14 14 14 14 14
14 14 14 14 14 14 14 14 14 14
14 14 14 14 14 14 14 14 14 14
14 14 14 14 14 14 14 14 14 14
14 14 14 14 14 14 14 14 14 14
14 14 14 14 14 14 14 14 14 14
14 14 14 14 14 14 14 14 14 14
14 14 14 14 14 14 14 14 14 14
14 14 14 14 14 14 14 14 14 14
14 14 14 14 14 14 14 14 14 14
14 14 14 14 14 14 14 14 14 14
14 14 14 15 15 15 15 15 15 15
15 15 15 15 15 15 15 15 15 15
15 15 15 15 15 15 15 15 15 15
15 15 15 15 15 15 15 15 15 15
15 15 15 15 15 15 15 15 15 15
15 15 15 15 15 15 15 15 15 15
15 15 15 15 15 15 15 15 15 15
15 16 16 16 16 16 16 16 16 16
16 16 16 16 16 16 16 16 16 16
16 16 16 16 16 16 16 16 16 16
16 16 16 16 16 16 16 16 16 16
16 16 16 16 16 16 16 16 16 16
16 16 16 16 16 16 16 16 16 16
16 16 16 16 16 16 16 16 16 17
17 17 17 17 17 17 17 17 17 17
17 17 17 17 17 17 17 17 17 17
17 17 17 17 17 17 17 17 17 17
17 17 17 17 17 17 17 17 17 17
17 17 17 17 17 17 17 17 17 17
17 17 17 17 17 17 17 17 17 17
17 17 17 17 17 17 17 17 17 17
17 17 17 17 17 17 17 17 17 17
17 17 17 17 17 17 17 17 17 17
17 17 17 17 17 17 17 17 17 17
17 17 17 17 17 17 17 18 18 18
18 18 18 18 18 18 18 18 18 19
19 19 19 19 19 19 19 19 19 19
19 20 20 20 20 20 20 20 20 20
20 20 20 21 21 21 21 21 21 21
21 21 21 21 21 22 22 22 22 22
22 22 22 22 22 22 22 23 23 23
23 23 23 23 23 23 23 23 23 24
24 24 24 24 24 24 24 24 24 24
24 24 24 24 24 24 24 24 24 24
24 24 24 24 24 24 24 24 24 24
24 24 24 24 24 24 24 24 24 24
24 24 24 24 24 24 24 24 24 24
24 24 24 24 24 24 24 24 24 24
24 24 24 24 24 24 24 24 24 24
24 24 24 24 24 24 24 24 24 24
24 24 24 24 24 24 24 24 24 24
24 24 24 24 24 24 24 24 24 24
24 24 24 24 24 24 24 24 24 24
24 24 24 24 24 24 24 24 24 24
24 24 24 24 24 24 24 24 24 24
24 24 24 24 24 24 24 24 24 25
25 25 25 25 25 25 25 25 25 25
25 25 25 25 25 25 25 25 25 25
25 25 25 25 25 25 25 25 25 25
25 25 25 25 25 25 25 25 25 25
25 25 25 25 25 25 25 25 25 25
25 25 25 25 25 25 25 25 25 25
25 25 25 25 25 25 25 26 26 26
26 26 26 26 26 26 26 26 26 26
26 26 26 26 26 26 26 26 26 26
26 26 26 26 26 26 26 26 26 26
26 26 26 26 26 26 26 26 26 26
26 26 26 26 26 26 26 26 26 26
26 26 26 26 26 26 26 26 26 26
26 26 26 26 26 27 27 27 27 27
27 27 27 27 27 27 27 27 27 27
27 27 27 27 27 27 27 27 27 27
27 27 27 27 27 27 27 27 27 27
27 27 27 27 27 27 27 27 27 27
27 27 27 27 27 27 27 27 27 27
27 27 27 27 27 27 27 27 27 27
27 27 27 27 27 27 27 27 27 27
27 27 27 27 27 27 27 27 27 27
27 27 27 27 27 27 27 27 27 27
27 27 27 27 27 27 27 27 27 27
27 27 27 28 28 28 28 28 28 28
28 28 28 28 28 29 29 29 29 29
29 29 29 29 29 29 29 30 30 30
30 30 30 30 30 30 30 30 30 31
31 31 31 31 31 31 31 31 31 31
31 32 32 32 32 32 32 32 32 32
32 32 32 33 33 33 33 33 33 33
33 33 33 33 33 34 34 34 34 34
34 34 34 34 34 34 34 34 34 34
34 34 34 34 34 34 34 34 34 34
34 34 34 34 34 34 34 34 34 34
34 34 34 34 34 34 34 34 34 34
34 34 34 34 34 34 34 34 34 34
34 34 34 34 34 34 34 34 34 34
34 34 34 34 34 34 34 34 34 34
34 34 34 34 34 34 34 34 34 34
34 34 34 34 34 34 34 34 34 34
34 34 34 34 34 34 34 34 34 34
34 34 34 34 34 34 34 34 34 34
34 34 34 34 34 34 34 34 34 34
34 34 34 34 34 34 34 34 34 34
34 34 34 34 34 35 35 35 35 35
35 35 35 35 35 35 35 35 35 35
35 35 35 35 35 35 35 35 35 35
35 35 35 35 35 35 35 35 35 35
35 35 35 35 35 35 35 35 35 35
35 35 35 35 35 35 35 35 35 35
35 35 35 35 35 35 35 35 35 35
35 35 35 36 36 36 36 36 36 36
36 36 36 36 36 36 36 36 36 36
36 36 36 36 36 36 36 36 36 36
36 36 36 36 36 36 36 36 36 36
36 36 36 36 36 36 36 36 36 36
36 36 36 36 36 36 36 36 36 36
36 36 36 36 36 36 36 36 36 36
36 37 37 37 37 37 37 37 37 37
37 37 37 37 37 37 37 37 37 37
37 37 37 37 37 37 37 37 37 37
37 37 37 37 37 37 37 37 37 37
37 37 37 37 37 37 37 37 37 37
37 37 37 37 37 37 37 37 37 37
37 37 37 37 37 37 37 37 37 37
37 37 37 37 37 37 37 37 37 37
37 37 37 37 37 37 37 37 37 37
37 37 37 37 37 37 37 37 37 37
37 37 37 37 37 37 37 37 37 38
38 38 38 38 38 38 38 38 38 38
38 39 39 39 39 39 39 39 39 39
39 39 39 40 40 40 40 40 40 40
40 40 40 40 40 41 41 41 41 41
41 41 41 41 41 41 41 42 42 42
42 42 42 42 42 42 42 42 42 43
43 43 43 43 43 43 43 43 43 43
43 44 44 44 44 44 44 44 44 44
44 44 44 44 44 44 44 44 44 44
44 44 44 44 44 44 44 44 44 44
44 44 44 44 44 44 44 44 44 44
44 44 44 44 44 44 44 44 44 44
44 44 44 44 44 44 44 44 44 44
44 44 44 44 44 44 44 44 44 44
44 44 44 44 44 44 44 44 44 44
44 44 44 44 44 44 44 44 44 44
44 44 44 44 44 44 44 44 44 44
44 44 44 44 44 44 44 44 44 44
44 44 44 44 44 44 44 44 44 44
44 44 44 44 44 44 44 44 44 44
44 44 44 44 44 44 44 44 44 44
44 45 45 45 45 45 45 45 45 45
45 45 45 45 45 45 45 45 45 45
45 45 45 45 45 45 45 45 45 45
45 45 45 45 45 45 45 45 45 45
45 45 45 45 45 45 45 45 45 45
45 45 45 45 45 45 45 45 45 45
45 45 45 45 45 45 45 45 45 46
46 46 46 46 46 46 46 46 46 46
46 46 46 46 46 46 46 46 46 46
46 46 46 46 46 46 46 46 46 46
46 46 46 46 46 46 46 46 46 46
46 46 46 46 46 46 46 46 46 46
46 46 46 46 46 46 46 46 46 46
46 46 46 46 46 46 46 47 47 47
47 47 47 47 47 47 47 47 47 47
47 47 47 47 47 47 47 47 47 47
47 47 47 47 47 47 47 47 47 47
47 47 47 47 47 47 47 47 47 47
47 47 47 47 47 47 47 47 47 47
47 47 47 47 47 47 47 47 47 47
47 47 47 47 47 47 47 47 47 47
47 47 47 47 47 47 47 47 47 47
47 47 47 47 47 47 47 47 47 47
47 47 47 47 47 47 47 47 47 47
47 47 47 47 47 48 48 48 48 48
48 48 48 48 48 48 48 49 49 49
49 49 49 49 49 49 49 49 49 50
50 50 50 50 50 50 50 50 50 50
50 51 51 51 51 51 51 51 51 51
51 51 51 52 52 52 52 52 52 52
52 52 52 52 52 53 53 53 53 53
53 53 53 53 53 53 53 54 54 54
54 54 54 54 54 54 54 54 54 54
54 54 54 54 54 54 54 54 54 54
54 54 54 54 54 54 54 54 54 54
54 54 54 54 54 54 54 54 54 54
54 54 54 54 54 54 54 54 54 54
54 54 54 54 54 54 54 54 54 54
54 54 54 54 54 54 54 54 54 54
54 54 54 54 54 54 54 54 54 54
54 54 54 54 54 54 54 54 54 54
54 54 54 54 54 54 54 54 54 54
54 54 54 54 54 54 54 54 54 54
54 54 54 54 54 54 54 54 54 54
54 54 54 54 54 54 54 54 54 54
54 54 54 54 54 54 54 55 55 55
55 55 55 55 55 55 55 55 55 55
55 55 55 55 55 55 55 55 55 55
55 55 55 55 55 55 55 55 55 55
55 55 55 55 55 55 55 55 55 55
55 55 55 55 55 55 55 55 55 55
55 55 55 55 55 55 55 55 55 55
55 55 55 55 55 56 56 56 56 56
56 56 56 56 56 56 56 56 56 56
56 56 56 56 56 56 56 56 56 56
56 56 56 56 56 56 56 56 56 56
56 56 56 56 56 56 56 56 56 56
56 56 56 56 56 56 56 56 56 56
56 56 56 56 56 56 56 56 56 56
56 56 56 57 57 57 57 57 57 57
57 57 57 57 57 57 57 57 57 57
57 57 57 57 57 57 57 57 57 57
57 57 57 57 57 57 57 57 57 57
57 57 57 57 57 57 57 57 57 57
57 57 57 57 57 57 57 57 57 57
57 57 57 57 57 57 57 57 57 57
57 57 57 57 57 57 57 57 57 57
57 57 57 57 57 57 57 57 57 57
57 57 57 57 57 57 57 57 57 57
57 57 57 57 57 57 57 57 57 57
57 58 58 58 58 58 58 58 58 58
58 58 58 59 59 59 59 59 59 59
59 59 59 59 59 60 60 60 60 60
60 60 60 60 60 60 60 61 61 61
61 61 61 61 61 61 61 61 61 62
62 62 62 62 62 62 62 62 62 62
62 63 63 63 63 63 63 63 63 63
63 63 63 64 64 64 64 64 64 64
64 64 64 64 64 64 64 64 64 64
64 64 64 64 64 64 64 64 64 64
64 64 64 64 64 64 64 64 64 64
64 64 64 64 64 64 64 64 64 64
64 64 64 64 64 64 64 64 64 64
64 64 64 64 64 64 64 64 64 64
64 64 64 64 64 64 64 64 64 64
64 64 64 64 64 64 64 64 64 64
64 64 64 64 64 64 64 64 64 64
64 64 64 64 64 64 64 64 64 64
64 64 64 64 64 64 64 64 64 64
64 64 64 64 64 64 64 64 64 64
64 64 64 64 64 64 64 64 64 64
64 64 64 65 65 65 65 65 65 65
65 65 65 65 65 65 65 65 65 65
65 65 65 65 65 65 65 65 65 65
65 65 65 65 65 65 65 65 65 65
65 65 65 65 65 65 65 65 65 65
65 65 65 65 65 65 65 65 65 65
65 65 65 65 65 65 65 65 65 65
65 66 66 66 66 66 66 66 66 66
66 66 66 66 66 66 66 66 66 66
66 66 66 66 66 66 66 66 66 66
66 66 66 66 66 66 66 66 66 66
66 66 66 66 66 66 66 66 66 66
66 66 66 66 66 66 66 66 66 66
66 66 66 66 66 66 66 66 66 67
67 67 67 67 67 67 67 67 67 67
67 67 67 67 67 67 67 67 67 67
67 67 67 67 67 67 67 67 67 67
67 67 67 67 67 67 67 67 67 67
67 67 67 67 67 67 67 67 67 67
67 67 67 67 67 67 67 67 67 67
67 67 67 67 67 67 67 67 67 67
67 67 67 67 67 67 67 67 67 67
67 67 67 67 67 67 67 67 67 67
67 67 67 67 67 67 67 67 67 67
67 67 67 67 67 67 67 68 68 68
68 68 68 68 68 68 68 68 68 69
69 69 69 69 69 69 69 69 69 69
69 70 70 70 70 70 70 70 70 70
70 70 70 71 71 71 71 71 71 71
71 71 71 71 71 72 72 72 72 72
72 72 72 72 72 72 72 73 73 73
73 73 73 73 73 73 73 73 73 74
74 74 74 74 74 74 74 74 74 74
74 74 74 74 74 74 74 74 74 74
74 74 74 74 74 74 74 74 74 74
74 74 74 74 74 74 74 74 74 74
74 74 74 74 74 74 74 74 74 74
74 74 74 74 74 74 74 74 74 74
74 74 74 74 74 74 74 74 74 74
74 74 74 74 74 74 74 74 74 74
74 74 74 74 74 74 74 74 74 74
74 74 74 74 74 74 74 74 74 74
74 74 74 74 74 74 74 74 74 74
74 74 74 74 74 74 74 74 74 74
74 74 74 74 74 74 74 74 74 74
74 74 74 74 74 74 74 74 74 75
75 75 75 75 75 75 75 75 75 75
75 75 75 75 75 75 75 75 75 75
75 75 75 75 75 75 75 75 75 75
75 75 75 75 75 75 75 75 75 75
75 75 75 75 75 75 75 75 75 75
75 75 75 75 75 75 75 75 75 75
75 75 75 75 75 75 75 76 76 76
76 76 76 76 76 76 76 76 76 76
76 76 76 76 76 76 76 76 76 76
76 76 76 76 76 76 76 76 76 76
76 76 76 76 76 76 76 76 76 76
76 76 76 76 76 76 76 76 76 76
76 76 76 76 76 76 76 76 76 76
76 76 76 76 76 77 77 77 77 77
77 77 77 77 77 77 77 77 77 77
77 77 77 77 77 77 77 77 77 77
77 77 77 77 77 77 77 77 77 77
77 77 77 77 77 77 77 77 77 77
77 77 77 77 77 77 77 77 77 77
77 77 77 77 77 77 77 77 77 77
77 77 77 77 77 77 77 77 77 77
77 77 77 77 77 77 77 77 77 77
77 77 77 77 77 77 77 77 77 77
77 77 77 77 77 77 77 77 77 77
77 77 77 78 78 78 78 78 78 78
78 78 78 78 78 79 79 79 79 79
79 79 79 79 79 79 79 80 80 80
80 80 80 80 80 80 80 80 80 81
81 81 81 81 81 81 81 81 81 81
81 82 82 82 82 82 82 82 82 82
82 82 82 83 83 83 83 83 83 83
83 83 83 83 83 84 84 84 84 84
84 84 84 84 84 84 84 84 84 84
84 84 84 84 84 84 84 84 84 84
84 84 84 84 84 84 84 84 84 84
84 84 84 84 84 84 84 84 84 84
84 84 84 84 84 84 84 84 84 84
84 84 84 84 84 84 84 84 84 84
84 84 84 84 84 84 84 84 84 84
84 84 84 84 84 84 84 84 84 84
84 84 84 84 84 84 84 84 84 84
84 84 84 84 84 84 84 84 84 84
84 84 84 84 84 84 84 84 84 84
84 84 84 84 84 84 84 84 84 84
84 84 84 84 84 84 84 84 84 84
84 84 84 84 84 85 85 85 85 85
85 85 85 85 85 85 85 85 85 85
85 85 85 85 85 85 85 85 85 85
85 85 85 85 85 85 85 85 85 85
85 85 85 85 85 85 85 85 85 85
85 85 85 85 85 85 85 85 85 85
85 85 85 85 85 85 85 85 85 85
85 85 85 86 86 86 86 86 86 86
86 86 86 86 86 86 86 86 86 86
86 86 86 86 86 86 86 86 86 86
86 86 86 86 86 86 86 86 86 86
86 86 86 86 86 86 86 86 86 86
86 86 86 86 86 86 86 86 86 86
86 86 86 86 86 86 86 86 86 86
86 87 87 87 87 87 87 87 87 87
87 87 87 87 87 87 87 87 87 87
87 87 87 87 87 87 87 87 87 87
87 87 87 87 87 87 87 87 87 87
87 87 87 87 87 87 87 87 87 87
87 87 87 87 87 87 87 87 87 87
87 87 87 87 87 87 87 87 87 87
87 87 87 87 87 87 87 87 87 87
87 87 87 87 87 87 87 87 87 87
87 87 87 87 87 87 87 87 87 87
87 87 87 87 87 87 87 87 87 88
88 88 88 88 88 88 88 88 88 88
88 89 89 89 89 89 89 89 89 89
89 89 89 90 90 90 90 90 90 90
90 90 90 90 90 91 91 91 91 91
91 91 91 91 91 91 91 92 92 92
92 92 92 92 92 92 92 92 92 93
93 93 93 93 93 93 93 93 93 93
93 94 94 94 94 94 94 94 94 94
94 94 94 94 94 94 94 94 94 94
94 94 94 94 94 94 94 94 94 94
94 94 94 94 94 94 94 94 94 94
94 94 94 94 94 94 94 94 94 94
94 94 94 94 94 94 94 94 94 94
94 94 94 94 94 94 94 94 94 94
94 94 94 94 94 94 94 94 94 94
94 94 94 94 94 94 94 94 94 94
94 94 94 94 94 94 94 94 94 94
94 94 94 94 94 94 94 94 94 94
94 94 94 94 94 94 94 94 94 94
94 94 94 94 94 94 94 94 94 94
94 94 94 94 94 94 94 94 94 94
94 95 95 95 95 95 95 95 95 95
95 95 95 95 95 95 95 95 95 95
95 95 95 95 95 95 95 95 95 95
95 95 95 95 95 95 95 95 95 95
95 95 95 95 95 95 95 95 95 95
95 95 95 95 95 95 95 95 95 95
95 95 95 95 95 95 95 95 95 96
96 96 96 96 96 96 96 96 96 96
96 96 96 96 96 96 96 96 96 96
96 96 96 96 96 96 96 96 96 96
96 96 96 96 96 96 96 96 96 96
96 96 96 96 96 96 96 96 96 96
96 96 96 96 96 96 96 96 96 96
96 96 96 96 96 96 96 97 97 97
97 97 97 97 97 97 97 97 97 97
97 97 97 97 97 97 97 97 97 97
97 97 97 97 97 97 97 97 97 97
97 97 97 97 97 97 97 97 97 97
97 97 97 97 97 97 97 97 97 97
97 97 97 97 97 97 97 97 97 97
97 97 97 97 97 97 97 97 97 97
97 97 97 97 97 97 97 97 97 97
97 97 97 97 97 97 97 97 97 97
97 97 97 97 97 97 97 97 97 97
97 97 97 97 97 98 98 98 98 98
98 98 98 98 98 98 98 99 99 99
99 99 99 99 99 99 99 99 99 100
100 100 100 100 100 100 100 100 100 100
100 101 101 101 101 101 101 101 101 101
101 101 101 102 102 102 102 102 102 102
102 102 102 102 102 103 103 103 103 103
103 103 103 103 103 103 103 104 104 104
104 104 104 104 104 104 104 104 104 104
104 104 104 104 104 104 104 104 104 104
104 104 104 104 104 104 104 104 104 104
104 104 104 104 104 104 104 104 104 104
104 104 104 104 104 104 104 104 104 104
104 104 104 104 104 104 104 104 104 104
104 104 104 104 104 104 104 104 104 104
104 104 104 104 104 104 104 104 104 104
104 104 104 104 104 104 104 104 104 104
104 104 104 104 104 104 104 104 104 104
104 104 104 104 104 104 104 104 104 104
104 104 104 104 104 104 104 104 104 104
104 104 104 104 104 104 104 104 104 104
104 104 104 104 104 104 104 105 105 105
105 105 105 105 105 105 105 105 105 105
105 105 105 105 105 105 105 105 105 105
105 105 105 105 105 105 105 105 105 105
105 105 105 105 105 105 105 105 105 105
105 105 105 105 105 105 105 105 105 105
105 105 105 105 105 105 105 105 105 105
105 105 105 105 105 106 106 106 106 106
106 106 106 106 106 106 106 106 106 106
106 106 106 106 106 106 106 106 106 106
106 106 106 106 106 106 106 106 106 106
106 106 106 106 106 106 106 106 106 106
106 106 106 106 106 106 106 106 106 106
106 106 106 106 106 106 106 106 106 106
106 106 106 107 107 107 107 107 107 107
107 107 107 107 107 107 107 107 107 107
107 107 107 107 107 107 107 107 107 107
107 107 107 107 107 107 107 107 107 107
107 107 107 107 107 107 107 107 107 107
107 107 107 107 107 107 107 107 107 107
107 107 107 107 107 107 107 107 107 107
107 107 107 107 107 107 107 107 107 107
107 107 107 107 107 107 107 107 107 107
107 107 107 107 107 107 107 107 107 107
107 107 107 107 107 107 107 107 107 107
107 108 108 108 108 108 108 108 108 108
108 108 108 109 109 109 109 109 109 109
109 109 109 109 109 110 110 110 110 110
110 110 110 110 110 110 110 111 111 111
111 111 111 111 111 111 111 111 111 112
112 112 112 112 112 112 112 112 112 112
112 113 113 113 113 113 113 113 113 113
113 113 113 114 114 114 114 114 114 114
114 114 114 114 114 114 114 114 114 114
114 114 114 114 114 114 114 114 114 114
114 114 114 114 114 114 114 114 114 114
114 114 114 114 114 114 114 114 114 114
114 114 114 114 114 114 114 114 114 114
114 114 114 114 114 114 114 114 114 114
114 114 114 114 114 114 114 114 114 114
114 114 114 114 114 114 114 114 114 114
114 114 114 114 114 114 114 114 114 114
114 114 114 114 114 114 114 114 114 114
114 114 114 114 114 114 114 114 114 114
114 114 114 114 114 114 114 114 114 114
114 114 114 114 114 114 114 114 114 114
114 114 114 115 115 115 115 115 115 115
115 115 115 115 115 115 115 115 115 115
115 115 115 115 115 115 115 115 115 115
115 115 115 115 115 115 115 115 115 115
115 115 115 115 115 115 115 115 115 115
115 115 115 115 115 115 115 115 115 115
115 115 115 115 115 115 115 115 115 115
115 116 116 116 116 116 116 116 116 116
116 116 116 116 116 116 116 116 116 116
116 116 116 116 116 116 116 116 116 116
116 116 116 116 116 116 116 116 116 116
116 116 116 116 116 116 116 116 116 116
116 116 116 116 116 116 116 116 116 116
116 116 116 116 116 116 116 116 116 117
117 117 117 117 117 117 117 117 117 117
117 117 117 117 117 117 117 117 117 117
117 117 117 117 117 117 117 117 117 117
117 117 117 117 117 117 117 117 117 117
117 117 117 117 117 117 117 117 117 117
117 117 117 117 117 117 117 117 117 117
117 117 117 117 117 117 117 117 117 117
117 117 117 117 117 117 117 117 117 117
117 117 117 117 117 117 117 117 117 117
117 117 117 117 117 117 117 117 117 117
117 117 117 117 117 117 117 118 118 118
118 118 118 118 118 118 118 118 118 119
119 119 119 119 119 119 119 119 119 119
119 120 120 120 120 120 120 120 120 120
120 120 120 121 121 121 121 121 121 121
121 121 121 121 121 122 122 122 122 122
122 122 122 122 122 122 122 123 123 123
123 123 123 123 123 123 123 123 123 124
124 124 124 124 124 124 124 124 124 124
124 124 124 124 124 124 124 124 124 124
124 124 124 124 124 124 124 124 124 124
124 124 124 124 124 124 124 124 124 124
124 124 124 124 124 124 124 124 124 124
124 124 124 124 124 124 124 124 124 124
124 124 124 124 124 124 124 124 124 124
124 124 124 124 124 124 124 124 124 124
124 124 124 124 124 124 124 124 124 124
124 124 124 124 124 124 124 124 124 124
124 124 124 124 124 124 124 124 124 124
124 124 124 124 124 124 124 124 124 124
124 124 124 124 124 124 124 124 124 124
124 124 124 124 124 124 124 124 124 125
125 125 125 125 125 125 125 125 125 125
125 125 125 125 125 125 125 125 125 125
125 125 125 125 125 125 125 125 125 125
125 125 125 125 125 125 125 125 125 125
125 125 125 125 125 125 125 125 125 125
125 125 125 125 125 125 125 125 125 125
125 125 125 125 125 125 125 126 126 126
126 126 126 126 126 126 126 126 126 126
126 126 126 126 126 126 126 126 126 126
126 126 126 126 126 126 126 126 126 126
126 126 126 126 126 126 126 126 126 126
126 126 126 126 126 126 126 126 126 126
126 126 126 126 126 126 126 126 126 126
126 126 126 126 126 127 127 127 127 127
127 127 127 127 127 127 127 127 127 127
127 127 127 127 127 127 127 127 127 127
127 127 127 127 127 127 127 127 127 127
127 127 127 127 127 127 127 127 127 127
127 127 127 127 127 127 127 127 127 127
127 127 127 127 127 127 127 127 127 127
127 127 127 127 127 127 127 127 127 127
127 127 127 127 127 127 127 127 127 127
127 127 127 127 127 127 127 127 127 127
127 127 127 127 127 127 127 127 127 127
127 127 127 128 128 128 128 128 128 128
128 128 128 128 128 129 129 129 129 129
129 129 129 129 129 129 129 130 130 130
130 130 130 130 130 130 130 130 130 131
131 131 131 131 131 131 131 131 131 131
131 132 132 132 132 132 132 132 132 132
132 132 132 133 133 133 133 133 133 133
133 133 133 133 133 134 134 134 134 134
134 134 134 134 134 134 134 134 134 134
134 134 134 134 134 134 134 134 134 134
134 134 134 134 134 134 134 134 134 134
134 134 134 134 134 134 134 134 134 134
134 134 134 134 134 134 134 134 134 134
134 134 134 134 134 134 134 134 134 134
134 134 134 134 134 134 134 134 134 134
134 134 134 134 134 134 134 134 134 134
134 134 134 134 134 134 134 134 134 134
134 134 134 134 134 134 134 134 134 134
134 134 134 134 134 134 134 134 134 134
134 134 134 134 134 134 134 134 134 134
134 134 134 134 134 134 134 134 134 134
134 134 134 134 134 135 135 135 135 135
135 135 135 135 135 135 135 135 135 135
135 135 135 135 135 135 135 135 135 135
135 135 135 135 135 135 135 135 135 135
135 135 135 135 135 135 135 135 135 135
135 135 135 135 135 135 135 135 135 135
135 135 135 135 135 135 135 135 135 135
135 135 135 136 136 136 136 136 136 136
136 136 136 136 136 136 136 136 136 136
136 136 136 136 136 136 136 136 136 136
136 136 136 136 136 136 136 136 136 136
136 136 136 136 136 136 136 136 136 136